ITEM: TIMESTEP
0
ITEM: NUMBER OF ATOMS
17
ITEM: BOX BOUNDS pp pp pp
-3.0000000000000000e+01 3.0000000000000000e+01
-3.0000000000000000e+01 3.0000000000000000e+01
-3.0000000000000000e+01 3.0000000000000000e+01
ITEM: ATOMS id type xs ys zs
1 1 0.186596 0.507112 0.405771
12 3 0.621679 0.498355 0.425347
2 2 0.202448 0.511787 0.443032
3 3 0.223229 0.494186 0.497407
4 3 0.277672 0.4673 0.504792
5 3 0.322337 0.489783 0.540031
6 3 0.372276 0.470514 0.56953
7 3 0.426236 0.480467 0.542498
8 4 0.485018 0.533373 0.553821
9 5 0.503408 0.553534 0.521186
10 4 0.544936 0.521235 0.472198
11 3 0.572805 0.494843 0.462006
13 3 0.679642 0.500681 0.444725
14 3 0.729721 0.471426 0.463731
15 3 0.771825 0.501716 0.496015
16 2 0.789573 0.490876 0.553191
17 1 0.805599 0.47436 0.5615
ITEM: TIMESTEP
5792
ITEM: NUMBER OF ATOMS
17
ITEM: BOX BOUNDS pp pp pp
-3.0000000000000000e+01 3.0000000000000000e+01
-3.0000000000000000e+01 3.0000000000000000e+01
-3.0000000000000000e+01 3.0000000000000000e+01
ITEM: ATOMS id type xs ys zs
1 1 0.20893 0.503474 0.423577
2 2 0.213948 0.51585 0.45229
3 3 0.242675 0.490795 0.498622
4 3 0.299442 0.472472 0.505073
5 3 0.345121 0.503493 0.523879
6 3 0.378542 0.467747 0.555628
7 3 0.429276 0.472026 0.530762
8 4 0.464301 0.524792 0.531219
9 5 0.497791 0.558063 0.51748
10 4 0.531217 0.532999 0.491559
11 3 0.566303 0.48481 0.470163
12 3 0.613696 0.486916 0.439166
13 3 0.665199 0.503349 0.461074
14 3 0.720132 0.479453 0.457704
15 3 0.765652 0.497962 0.489137
16 2 0.779118 0.494533 0.545786
17 1 0.79366 0.472813 0.563661
ITEM: TIMESTEP
10000
ITEM: NUMBER OF ATOMS
17
ITEM: BOX BOUNDS pp pp pp
-3.0000000000000000e+01 3.0000000000000000e+01
-3.0000000000000000e+01 3.0000000000000000e+01
-3.0000000000000000e+01 3.0000000000000000e+01
ITEM: ATOMS id type xs ys zs
1 1 0.348152 0.568399 0.506443
2 2 0.367099 0.543628 0.511782
3 3 0.391838 0.511454 0.47316
4 3 0.435481 0.47542 0.483304
7 3 0.413138 0.474694 0.523494
5 3 0.470152 0.42426 0.50006
6 3 0.415186 0.413069 0.510882
8 4 0.445278 0.526842 0.507836
9 5 0.478109 0.556764 0.486907
10 4 0.521408 0.53629 0.498461
11 3 0.577605 0.520018 0.524712
12 3 0.573237 0.456789 0.526883
13 3 0.56208 0.461819 0.463943
14 3 0.611286 0.480763 0.43862
16 2 0.640868 0.513077 0.52623
15 3 0.619839 0.52661 0.471212
17 1 0.67054 0.505369 0.534005
ITEM: TIMESTEP
20000
ITEM: NUMBER OF ATOMS
17
ITEM: BOX BOUNDS pp pp pp
-3.0000000000000000e+01 3.0000000000000000e+01
-3.0000000000000000e+01 3.0000000000000000e+01
-3.0000000000000000e+01 3.0000000000000000e+01
ITEM: ATOMS id type xs ys zs
2 2 0.413437 0.585268 0.356776
1 1 0.425182 0.570571 0.331155
17 1 0.643492 0.391233 0.434781
16 2 0.658366 0.419098 0.438268
3 3 0.366589 0.572512 0.399928
6 3 0.434637 0.526403 0.536365
7 3 0.402736 0.503757 0.578676
8 4 0.44987 0.477263 0.612797
4 3 0.364354 0.55855 0.461984
13 3 0.561059 0.482209 0.460662
12 3 0.601668 0.499814 0.499475
15 3 0.64255 0.473707 0.451043
14 3 0.593418 0.476005 0.417964
11 3 0.575236 0.48759 0.552107
5 3 0.403976 0.572198 0.510558
9 5 0.493382 0.454256 0.617292
10 4 0.525231 0.476474 0.587141
ITEM: TIMESTEP
30000
ITEM: NUMBER OF ATOMS
17
ITEM: BOX BOUNDS pp pp pp
-3.0000000000000000e+01 3.0000000000000000e+01
-3.0000000000000000e+01 3.0000000000000000e+01
-3.0000000000000000e+01 3.0000000000000000e+01
ITEM: ATOMS id type xs ys zs
6 3 0.420824 0.533256 0.441318
1 1 0.312707 0.601819 0.420663
10 4 0.472428 0.435187 0.548972
11 3 0.51998 0.39532 0.549333
14 3 0.649693 0.487748 0.5491
5 3 0.422694 0.547153 0.490019
9 5 0.449961 0.477535 0.538748
7 3 0.479438 0.513357 0.437411
8 4 0.459364 0.487475 0.491326
13 3 0.607528 0.451206 0.537213
16 2 0.721482 0.477207 0.452547
17 1 0.745245 0.498114 0.451523
15 3 0.695173 0.475951 0.509537
2 2 0.307386 0.614113 0.449436
3 3 0.356142 0.627002 0.483332
4 3 0.386731 0.586872 0.515328
12 3 0.573789 0.394621 0.534748
ITEM: TIMESTEP
40000
ITEM: NUMBER OF ATOMS
17
ITEM: BOX BOUNDS pp pp pp
-3.0000000000000000e+01 3.0000000000000000e+01
-3.0000000000000000e+01 3.0000000000000000e+01
-3.0000000000000000e+01 3.0000000000000000e+01
ITEM: ATOMS id type xs ys zs
9 5 0.577965 0.497448 0.418356
11 3 0.54618 0.418615 0.492588
13 3 0.500179 0.446399 0.551944
12 3 0.479304 0.414973 0.508138
4 3 0.416246 0.468093 0.526067
3 3 0.396476 0.523735 0.555023
5 3 0.458957 0.510592 0.540652
10 4 0.572381 0.455848 0.445375
8 4 0.543457 0.529611 0.43144
6 3 0.452656 0.5541 0.501755
17 1 0.554653 0.5763 0.509206
16 2 0.55168 0.552258 0.529665
7 3 0.491768 0.552136 0.456999
15 3 0.569778 0.493712 0.53141
1 1 0.346429 0.575595 0.514819
2 2 0.377451 0.570402 0.519193
14 3 0.556361 0.439425 0.540014
ITEM: TIMESTEP
50000
ITEM: NUMBER OF ATOMS
17
ITEM: BOX BOUNDS pp pp pp
-3.0000000000000000e+01 3.0000000000000000e+01
-3.0000000000000000e+01 3.0000000000000000e+01
-3.0000000000000000e+01 3.0000000000000000e+01
ITEM: ATOMS id type xs ys zs
7 3 0.43864 0.520871 0.420895
8 4 0.502746 0.531547 0.411733
9 5 0.550139 0.51915 0.408047
13 3 0.485099 0.464154 0.557602
12 3 0.5169 0.464051 0.510712
6 3 0.459128 0.477943 0.460773
10 4 0.562485 0.511208 0.45476
5 3 0.498593 0.509456 0.464401
4 3 0.46882 0.560503 0.467633
11 3 0.568075 0.483947 0.509471
1 1 0.546184 0.649081 0.515054
2 2 0.547174 0.661383 0.485899
3 3 0.513307 0.602778 0.470037
17 1 0.420365 0.359509 0.660108
14 3 0.476262 0.430424 0.608267
15 3 0.457033 0.381061 0.595495
16 2 0.441807 0.356127 0.637187
ITEM: TIMESTEP
60000
ITEM: NUMBER OF ATOMS
17
ITEM: BOX BOUNDS pp pp pp
-3.0000000000000000e+01 3.0000000000000000e+01
-3.0000000000000000e+01 3.0000000000000000e+01
-3.0000000000000000e+01 3.0000000000000000e+01
ITEM: ATOMS id type xs ys zs
6 3 0.473075 0.524357 0.402856
5 3 0.528055 0.527172 0.432558
4 3 0.534477 0.572684 0.471261
15 3 0.467493 0.401653 0.568377
7 3 0.431935 0.532517 0.420476
14 3 0.494069 0.444204 0.591861
8 4 0.466263 0.512772 0.469599
9 5 0.486919 0.480468 0.501086
10 4 0.532848 0.483764 0.481694
11 3 0.596173 0.47339 0.474675
12 3 0.585069 0.487722 0.533903
1 1 0.453005 0.653655 0.520762
2 2 0.466047 0.658349 0.492102
3 3 0.486304 0.600154 0.483995
17 1 0.469063 0.327595 0.586946
16 2 0.481714 0.352078 0.57135
13 3 0.528273 0.471952 0.551068
ITEM: TIMESTEP
70000
ITEM: NUMBER OF ATOMS
17
ITEM: BOX BOUNDS pp pp pp
-3.0000000000000000e+01 3.0000000000000000e+01
-3.0000000000000000e+01 3.0000000000000000e+01
-3.0000000000000000e+01 3.0000000000000000e+01
ITEM: ATOMS id type xs ys zs
9 5 0.435454 0.459177 0.415719
11 3 0.363459 0.392379 0.465377
12 3 0.390148 0.370784 0.50953
13 3 0.429301 0.387877 0.546389
10 4 0.398646 0.43691 0.439827
7 3 0.50755 0.522972 0.475625
8 4 0.464452 0.485115 0.447577
6 3 0.523059 0.572992 0.459408
16 2 0.506209 0.491077 0.580841
17 1 0.481569 0.511133 0.582717
5 3 0.583979 0.590124 0.468669
4 3 0.633811 0.575415 0.511253
3 3 0.648861 0.629103 0.533105
2 2 0.657757 0.676859 0.506183
1 1 0.683721 0.674396 0.488302
14 3 0.454551 0.428983 0.569656
15 3 0.508806 0.431336 0.582802
ITEM: TIMESTEP
80000
ITEM: NUMBER OF ATOMS
17
ITEM: BOX BOUNDS pp pp pp
-3.0000000000000000e+01 3.0000000000000000e+01
-3.0000000000000000e+01 3.0000000000000000e+01
-3.0000000000000000e+01 3.0000000000000000e+01
ITEM: ATOMS id type xs ys zs
5 3 0.53681 0.644359 0.413254
6 3 0.534737 0.58972 0.389314
4 3 0.591471 0.658924 0.419009
3 3 0.622264 0.609136 0.442817
11 3 0.471649 0.4299 0.544284
9 5 0.51681 0.443137 0.445564
8 4 0.524879 0.489947 0.43413
10 4 0.505814 0.438599 0.492444
7 3 0.553066 0.541684 0.414721
1 1 0.709625 0.602093 0.463358
2 2 0.68061 0.591486 0.455958
14 3 0.383604 0.393035 0.626239
15 3 0.363176 0.435612 0.590769
12 3 0.454359 0.446396 0.599034
13 3 0.443073 0.396575 0.63941
17 1 0.283431 0.424878 0.596615
16 2 0.311224 0.43442 0.584661
ITEM: TIMESTEP
90000
ITEM: NUMBER OF ATOMS
17
ITEM: BOX BOUNDS pp pp pp
-3.0000000000000000e+01 3.0000000000000000e+01
-3.0000000000000000e+01 3.0000000000000000e+01
-3.0000000000000000e+01 3.0000000000000000e+01
ITEM: ATOMS id type xs ys zs
6 3 0.478089 0.56029 0.400772
5 3 0.492872 0.571854 0.45969
7 3 0.45554 0.511125 0.417988
16 2 0.414165 0.447823 0.522181
15 3 0.452315 0.494317 0.517781
14 3 0.476537 0.523043 0.572133
8 4 0.467052 0.459396 0.447496
11 3 0.556399 0.460227 0.545734
9 5 0.490356 0.420635 0.465629
10 4 0.526025 0.43251 0.497416
1 1 0.569392 0.541376 0.535992
17 1 0.402622 0.426423 0.50181
2 2 0.564077 0.567344 0.518656
3 3 0.581434 0.609743 0.480912
4 3 0.544103 0.603275 0.434999
13 3 0.485553 0.47659 0.606997
12 3 0.548094 0.466694 0.604405
ITEM: TIMESTEP
100000
ITEM: NUMBER OF ATOMS
17
ITEM: BOX BOUNDS pp pp pp
-3.0000000000000000e+01 3.0000000000000000e+01
-3.0000000000000000e+01 3.0000000000000000e+01
-3.0000000000000000e+01 3.0000000000000000e+01
ITEM: ATOMS id type xs ys zs
5 3 0.540791 0.537588 0.408034
7 3 0.602388 0.480431 0.439605
13 3 0.38099 0.427146 0.545533
9 5 0.524095 0.406696 0.472379
12 3 0.392645 0.475139 0.526455
4 3 0.540934 0.577099 0.446428
11 3 0.448463 0.46546 0.529591
10 4 0.484315 0.425557 0.495538
8 4 0.557649 0.442706 0.469374
6 3 0.598042 0.529155 0.414083
3 3 0.535584 0.63362 0.453031
2 2 0.514141 0.663977 0.495621
1 1 0.508624 0.694974 0.498286
14 3 0.432118 0.421271 0.576133
16 2 0.47831 0.517597 0.58371
17 1 0.455777 0.539543 0.578568
15 3 0.472799 0.454317 0.599069
ITEM: TIMESTEP
110000
ITEM: NUMBER OF ATOMS
17
ITEM: BOX BOUNDS pp pp pp
-3.0000000000000000e+01 3.0000000000000000e+01
-3.0000000000000000e+01 3.0000000000000000e+01
-3.0000000000000000e+01 3.0000000000000000e+01
ITEM: ATOMS id type xs ys zs
7 3 0.549125 0.549715 0.423705
1 1 0.511527 0.669535 0.397217
12 3 0.512692 0.428864 0.511657
13 3 0.512244 0.384546 0.550977
14 3 0.457291 0.36371 0.558259
11 3 0.467806 0.453792 0.526763
9 5 0.444841 0.531602 0.455894
10 4 0.444018 0.499033 0.492515
8 4 0.492007 0.543626 0.452608
4 3 0.547889 0.565562 0.485143
5 3 0.580914 0.524325 0.496892
6 3 0.581889 0.50368 0.438293
2 2 0.528029 0.645474 0.409522
3 3 0.544164 0.609454 0.453221
15 3 0.445538 0.375048 0.61932
16 2 0.465389 0.426062 0.630785
17 1 0.457549 0.454345 0.618809
ITEM: TIMESTEP
120000
ITEM: NUMBER OF ATOMS
17
ITEM: BOX BOUNDS pp pp pp
-3.0000000000000000e+01 3.0000000000000000e+01
-3.0000000000000000e+01 3.0000000000000000e+01
-3.0000000000000000e+01 3.0000000000000000e+01
ITEM: ATOMS id type xs ys zs
2 2 0.580217 0.578887 0.38469
1 1 0.560581 0.589586 0.407296
3 3 0.639923 0.579942 0.409422
12 3 0.423478 0.372378 0.495086
13 3 0.389834 0.370408 0.545436
11 3 0.446349 0.41043 0.526188
8 4 0.519991 0.517479 0.478567
9 5 0.533256 0.471227 0.489405
10 4 0.494617 0.450129 0.512747
7 3 0.522496 0.579255 0.462098
6 3 0.558947 0.611744 0.480394
4 3 0.633332 0.585378 0.469367
5 3 0.593875 0.574751 0.507222
14 3 0.382653 0.405752 0.596954
15 3 0.37043 0.461234 0.575768
17 1 0.426389 0.523409 0.572623
16 2 0.420327 0.494018 0.562299
ITEM: TIMESTEP
130000
ITEM: NUMBER OF ATOMS
17
ITEM: BOX BOUNDS pp pp pp
-3.0000000000000000e+01 3.0000000000000000e+01
-3.0000000000000000e+01 3.0000000000000000e+01
-3.0000000000000000e+01 3.0000000000000000e+01
ITEM: ATOMS id type xs ys zs
17 1 0.268434 0.369093 0.498463
16 2 0.296557 0.37748 0.510524
15 3 0.319668 0.426641 0.521765
14 3 0.31581 0.469517 0.565069
12 3 0.427168 0.483225 0.550967
11 3 0.44449 0.440132 0.513537
9 5 0.520947 0.504744 0.458137
10 4 0.492151 0.477064 0.488512
4 3 0.636239 0.569212 0.452408
8 4 0.56587 0.504828 0.478966
7 3 0.615803 0.480673 0.506968
6 3 0.638595 0.470639 0.443381
5 3 0.665464 0.521926 0.451158
2 2 0.622106 0.664524 0.500893
3 3 0.61501 0.613105 0.486049
1 1 0.60681 0.687397 0.485085
13 3 0.370273 0.485111 0.580994
ITEM: TIMESTEP
140000
ITEM: NUMBER OF ATOMS
17
ITEM: BOX BOUNDS pp pp pp
-3.0000000000000000e+01 3.0000000000000000e+01
-3.0000000000000000e+01 3.0000000000000000e+01
-3.0000000000000000e+01 3.0000000000000000e+01
ITEM: ATOMS id type xs ys zs
1 1 0.756263 0.570254 0.435373
2 2 0.748866 0.540771 0.444785
16 2 0.342877 0.327649 0.521126
15 3 0.368429 0.365313 0.489436
14 3 0.3434 0.418524 0.486809
17 1 0.365685 0.310723 0.53516
13 3 0.333148 0.446033 0.535544
12 3 0.380228 0.460881 0.571629
11 3 0.420096 0.470666 0.535181
10 4 0.436348 0.52065 0.501663
9 5 0.463844 0.541783 0.466726
6 3 0.607102 0.597051 0.519511
4 3 0.660888 0.547664 0.498763
3 3 0.689584 0.513647 0.460315
8 4 0.495365 0.571682 0.489978
7 3 0.553446 0.598959 0.502158
5 3 0.640408 0.596614 0.476506
ITEM: TIMESTEP
150000
ITEM: NUMBER OF ATOMS
17
ITEM: BOX BOUNDS pp pp pp
-3.0000000000000000e+01 3.0000000000000000e+01
-3.0000000000000000e+01 3.0000000000000000e+01
-3.0000000000000000e+01 3.0000000000000000e+01
ITEM: ATOMS id type xs ys zs
3 3 0.514636 0.416512 0.387896
4 3 0.571575 0.434012 0.389664
1 1 0.488679 0.492447 0.380543
2 2 0.487408 0.467691 0.400286
17 1 0.517891 0.421652 0.479864
16 2 0.509429 0.451498 0.472475
15 3 0.471267 0.503815 0.481252
14 3 0.419201 0.490112 0.52513
13 3 0.37966 0.496859 0.574542
6 3 0.582182 0.461393 0.489844
8 4 0.528376 0.563323 0.50689
7 3 0.542931 0.506113 0.490884
5 3 0.601227 0.453139 0.441183
9 5 0.510065 0.598908 0.535706
10 4 0.493537 0.577255 0.577436
12 3 0.410124 0.51378 0.617669
11 3 0.469715 0.53066 0.61258
ITEM: TIMESTEP
160000
ITEM: NUMBER OF ATOMS
17
ITEM: BOX BOUNDS pp pp pp
-3.0000000000000000e+01 3.0000000000000000e+01
-3.0000000000000000e+01 3.0000000000000000e+01
-3.0000000000000000e+01 3.0000000000000000e+01
ITEM: ATOMS id type xs ys zs
1 1 0.543171 0.503822 0.340877
2 2 0.56596 0.485164 0.352781
3 3 0.614337 0.514224 0.359744
14 3 0.344238 0.466921 0.547328
13 3 0.371921 0.522767 0.530216
12 3 0.395477 0.570053 0.54721
10 4 0.475067 0.513041 0.534024
11 3 0.467646 0.571656 0.554511
9 5 0.489143 0.477255 0.503506
8 4 0.53336 0.493437 0.489847
4 3 0.661592 0.521914 0.393472
5 3 0.669159 0.536741 0.444935
7 3 0.586733 0.527963 0.497907
6 3 0.644648 0.522168 0.495499
17 1 0.366081 0.375487 0.637837
16 2 0.372813 0.399432 0.618013
15 3 0.367812 0.455681 0.604349
ITEM: TIMESTEP
170000
ITEM: NUMBER OF ATOMS
17
ITEM: BOX BOUNDS pp pp pp
-3.0000000000000000e+01 3.0000000000000000e+01
-3.0000000000000000e+01 3.0000000000000000e+01
-3.0000000000000000e+01 3.0000000000000000e+01
ITEM: ATOMS id type xs ys zs
7 3 0.576506 0.445515 0.376765
6 3 0.591961 0.496004 0.347058
8 4 0.529144 0.459229 0.417412
4 3 0.574766 0.519923 0.421193
5 3 0.620463 0.532922 0.378288
12 3 0.457322 0.472113 0.586461
10 4 0.492581 0.456554 0.48842
11 3 0.493542 0.442853 0.550739
9 5 0.501961 0.485468 0.449412
3 3 0.587619 0.539111 0.471796
2 2 0.607642 0.594275 0.475092
1 1 0.609706 0.616288 0.452423
13 3 0.428808 0.52126 0.575663
14 3 0.374106 0.514351 0.609198
15 3 0.368585 0.479817 0.652193
17 1 0.325228 0.539214 0.656388
16 2 0.33005 0.51587 0.677209
ITEM: TIMESTEP
180000
ITEM: NUMBER OF ATOMS
17
ITEM: BOX BOUNDS pp pp pp
-3.0000000000000000e+01 3.0000000000000000e+01
-3.0000000000000000e+01 3.0000000000000000e+01
-3.0000000000000000e+01 3.0000000000000000e+01
ITEM: ATOMS id type xs ys zs
7 3 0.552422 0.41512 0.405746
5 3 0.528284 0.496807 0.438888
6 3 0.577412 0.456479 0.440343
10 4 0.487972 0.401864 0.51552
9 5 0.507208 0.362832 0.491495
8 4 0.520412 0.380638 0.448079
12 3 0.41605 0.479777 0.498879
11 3 0.452315 0.453153 0.52579
14 3 0.428156 0.590092 0.516612
13 3 0.416056 0.54613 0.485618
4 3 0.555806 0.537425 0.462138
15 3 0.439968 0.583008 0.563028
3 3 0.56628 0.586759 0.487845
2 2 0.610926 0.613711 0.516063
1 1 0.611921 0.600977 0.545076
17 1 0.409454 0.634806 0.613157
16 2 0.432688 0.613566 0.610426
ITEM: TIMESTEP
190000
ITEM: NUMBER OF ATOMS
17
ITEM: BOX BOUNDS pp pp pp
-3.0000000000000000e+01 3.0000000000000000e+01
-3.0000000000000000e+01 3.0000000000000000e+01
-3.0000000000000000e+01 3.0000000000000000e+01
ITEM: ATOMS id type xs ys zs
6 3 0.591458 0.461294 0.456448
3 3 0.683125 0.449347 0.348588
2 2 0.702032 0.462694 0.295217
1 1 0.694056 0.439309 0.275668
4 3 0.642573 0.469684 0.384076
8 4 0.522703 0.493117 0.479377
9 5 0.48994 0.526128 0.494737
10 4 0.475006 0.505313 0.537269
7 3 0.54606 0.436454 0.461602
5 3 0.594531 0.497637 0.416477
12 3 0.418606 0.473246 0.613461
13 3 0.40101 0.530166 0.622239
11 3 0.451515 0.460183 0.573999
17 1 0.280869 0.578171 0.590116
16 2 0.287902 0.571976 0.620297
15 3 0.335193 0.586932 0.639668
14 3 0.385783 0.57753 0.604042
ITEM: TIMESTEP
200000
ITEM: NUMBER OF ATOMS
17
ITEM: BOX BOUNDS pp pp pp
-3.0000000000000000e+01 3.0000000000000000e+01
-3.0000000000000000e+01 3.0000000000000000e+01
-3.0000000000000000e+01 3.0000000000000000e+01
ITEM: ATOMS id type xs ys zs
2 2 0.671648 0.401694 0.410161
1 1 0.645447 0.398991 0.427564
6 3 0.57135 0.479918 0.406183
7 3 0.513096 0.488845 0.418535
5 3 0.582001 0.50018 0.357597
3 3 0.67158 0.428477 0.359249
4 3 0.645907 0.480011 0.354807
16 2 0.356393 0.516806 0.561599
17 1 0.350865 0.544856 0.547906
10 4 0.463439 0.49693 0.541717
8 4 0.489333 0.474895 0.476373
9 5 0.489889 0.460131 0.52345
11 3 0.447104 0.555576 0.559142
15 3 0.397815 0.51399 0.605941
14 3 0.395409 0.556461 0.651233
13 3 0.424045 0.602934 0.659084
12 3 0.427985 0.606388 0.595373
ITEM: TIMESTEP
210000
ITEM: NUMBER OF ATOMS
17
ITEM: BOX BOUNDS pp pp pp
-3.0000000000000000e+01 3.0000000000000000e+01
-3.0000000000000000e+01 3.0000000000000000e+01
-3.0000000000000000e+01 3.0000000000000000e+01
ITEM: ATOMS id type xs ys zs
6 3 0.557773 0.432683 0.36556
9 5 0.47808 0.518204 0.413979
5 3 0.592072 0.475727 0.40018
7 3 0.54354 0.430625 0.425277
1 1 0.602347 0.423583 0.551056
2 2 0.632921 0.424243 0.542941
13 3 0.386573 0.561299 0.561543
10 4 0.481451 0.542866 0.455861
8 4 0.50161 0.47538 0.419364
4 3 0.624083 0.470043 0.452422
3 3 0.656384 0.435932 0.489123
12 3 0.411579 0.590219 0.511482
11 3 0.466031 0.583921 0.499195
14 3 0.383479 0.505549 0.589537
15 3 0.396605 0.497888 0.643622
17 1 0.400498 0.580853 0.660608
16 2 0.408237 0.550355 0.664346
ITEM: TIMESTEP
220000
ITEM: NUMBER OF ATOMS
17
ITEM: BOX BOUNDS pp pp pp
-3.0000000000000000e+01 3.0000000000000000e+01
-3.0000000000000000e+01 3.0000000000000000e+01
-3.0000000000000000e+01 3.0000000000000000e+01
ITEM: ATOMS id type xs ys zs
7 3 0.536165 0.527918 0.413298
8 4 0.51445 0.47712 0.442601
6 3 0.547514 0.571957 0.446782
1 1 0.648211 0.378889 0.447751
2 2 0.630049 0.403854 0.45548
9 5 0.502095 0.432058 0.454677
11 3 0.480166 0.4338 0.563036
10 4 0.482274 0.436242 0.499478
3 3 0.637427 0.465457 0.430619
5 3 0.550922 0.512646 0.451753
4 3 0.594283 0.506557 0.409858
14 3 0.423524 0.573275 0.576128
12 3 0.43138 0.460785 0.594773
13 3 0.428463 0.511064 0.563137
16 2 0.362533 0.631672 0.577365
15 3 0.399448 0.611942 0.611795
17 1 0.339772 0.643398 0.595867
ITEM: TIMESTEP
230000
ITEM: NUMBER OF ATOMS
17
ITEM: BOX BOUNDS pp pp pp
-3.0000000000000000e+01 3.0000000000000000e+01
-3.0000000000000000e+01 3.0000000000000000e+01
-3.0000000000000000e+01 3.0000000000000000e+01
ITEM: ATOMS id type xs ys zs
7 3 0.522611 0.438846 0.391129
6 3 0.550062 0.395324 0.41558
5 3 0.565742 0.428744 0.46361
8 4 0.531548 0.496384 0.418165
4 3 0.613522 0.399527 0.484995
12 3 0.380615 0.588949 0.488254
13 3 0.356042 0.570998 0.537928
9 5 0.520096 0.538383 0.439438
10 4 0.471085 0.539339 0.44471
1 1 0.63526 0.530336 0.558571
2 2 0.637201 0.498571 0.561004
3 3 0.613153 0.454723 0.520521
11 3 0.412718 0.549021 0.469626
16 2 0.447418 0.476925 0.630359
17 1 0.455927 0.480551 0.660652
15 3 0.431196 0.527858 0.603544
14 3 0.400874 0.575592 0.571071
ITEM: TIMESTEP
240000
ITEM: NUMBER OF ATOMS
17
ITEM: BOX BOUNDS pp pp pp
-3.0000000000000000e+01 3.0000000000000000e+01
-3.0000000000000000e+01 3.0000000000000000e+01
-3.0000000000000000e+01 3.0000000000000000e+01
ITEM: ATOMS id type xs ys zs
2 2 0.66179 0.416176 0.504551
16 2 0.362592 0.425387 0.561809
11 3 0.412551 0.560982 0.457094
14 3 0.310152 0.544213 0.542494
15 3 0.330394 0.486096 0.560886
10 4 0.4614 0.525084 0.479864
9 5 0.484702 0.482212 0.48895
8 4 0.529987 0.490984 0.50266
7 3 0.592964 0.482926 0.512108
1 1 0.632947 0.424988 0.514762
3 3 0.682957 0.459965 0.466557
6 3 0.645746 0.518106 0.503072
5 3 0.633052 0.519797 0.451968
4 3 0.680322 0.5165 0.45322
13 3 0.345834 0.564288 0.493399
12 3 0.372495 0.607305 0.475051
17 1 0.382488 0.40811 0.543914
ITEM: TIMESTEP
250000
ITEM: NUMBER OF ATOMS
17
ITEM: BOX BOUNDS pp pp pp
-3.0000000000000000e+01 3.0000000000000000e+01
-3.0000000000000000e+01 3.0000000000000000e+01
-3.0000000000000000e+01 3.0000000000000000e+01
ITEM: ATOMS id type xs ys zs
4 3 0.654366 0.505824 0.442743
14 3 0.357124 0.516102 0.546421
15 3 0.358383 0.57157 0.54665
13 3 0.350294 0.492749 0.493308
12 3 0.361281 0.43652 0.506395
11 3 0.411898 0.406156 0.487136
10 4 0.453928 0.442272 0.521438
6 3 0.557272 0.497329 0.450304
9 5 0.465531 0.480377 0.549307
8 4 0.498285 0.507132 0.525214
7 3 0.55293 0.528896 0.501731
3 3 0.693409 0.479444 0.470597
5 3 0.604064 0.535893 0.434196
1 1 0.770369 0.457964 0.466642
2 2 0.74439 0.47246 0.455525
16 2 0.377857 0.613928 0.520998
17 1 0.397512 0.638761 0.523309
ITEM: TIMESTEP
260000
ITEM: NUMBER OF ATOMS
17
ITEM: BOX BOUNDS pp pp pp
-3.0000000000000000e+01 3.0000000000000000e+01
-3.0000000000000000e+01 3.0000000000000000e+01
-3.0000000000000000e+01 3.0000000000000000e+01
ITEM: ATOMS id type xs ys zs
3 3 0.671836 0.517784 0.414787
9 5 0.467422 0.405315 0.520965
8 4 0.513985 0.422782 0.523588
10 4 0.433657 0.440051 0.529123
6 3 0.627058 0.397628 0.5168
7 3 0.572396 0.436699 0.542213
11 3 0.414746 0.498321 0.53342
12 3 0.426977 0.553029 0.513791
4 3 0.662724 0.458346 0.42981
5 3 0.666483 0.416471 0.468609
1 1 0.721388 0.593362 0.431381
2 2 0.714504 0.563232 0.423649
17 1 0.264204 0.587326 0.555608
13 3 0.383741 0.55235 0.4812
16 2 0.290389 0.593447 0.538607
14 3 0.384756 0.607295 0.49268
15 3 0.325606 0.631925 0.518842
ITEM: TIMESTEP
270000
ITEM: NUMBER OF ATOMS
17
ITEM: BOX BOUNDS pp pp pp
-3.0000000000000000e+01 3.0000000000000000e+01
-3.0000000000000000e+01 3.0000000000000000e+01
-3.0000000000000000e+01 3.0000000000000000e+01
ITEM: ATOMS id type xs ys zs
7 3 0.52719 0.400233 0.390752
6 3 0.567315 0.395029 0.429113
5 3 0.583539 0.44857 0.4587
16 2 0.323352 0.566467 0.580549
15 3 0.35233 0.541895 0.533553
14 3 0.401428 0.51942 0.536376
9 5 0.488636 0.431303 0.492762
8 4 0.511242 0.413508 0.45239
11 3 0.51602 0.535379 0.523038
10 4 0.508111 0.47317 0.50755
4 3 0.574063 0.50134 0.466323
2 2 0.641116 0.571939 0.499678
3 3 0.590785 0.538212 0.514685
13 3 0.443409 0.567397 0.519838
12 3 0.49345 0.594293 0.523206
1 1 0.645988 0.595855 0.519627
17 1 0.312069 0.552831 0.607118
ITEM: TIMESTEP
280000
ITEM: NUMBER OF ATOMS
17
ITEM: BOX BOUNDS pp pp pp
-3.0000000000000000e+01 3.0000000000000000e+01
-3.0000000000000000e+01 3.0000000000000000e+01
-3.0000000000000000e+01 3.0000000000000000e+01
ITEM: ATOMS id type xs ys zs
9 5 0.509466 0.471404 0.41183
1 1 0.701231 0.535243 0.459643
11 3 0.401958 0.46776 0.444616
12 3 0.36699 0.470168 0.50167
13 3 0.372717 0.461599 0.565201
10 4 0.468601 0.471259 0.437659
8 4 0.527301 0.512237 0.433033
7 3 0.541422 0.554129 0.479527
6 3 0.525476 0.520319 0.51933
5 3 0.551015 0.458045 0.504696
2 2 0.68148 0.511976 0.452118
4 3 0.602594 0.461426 0.479585
3 3 0.62674 0.4991 0.436381
16 2 0.410391 0.572964 0.639703
14 3 0.431134 0.485387 0.57893
15 3 0.415087 0.523968 0.61574
17 1 0.432204 0.593596 0.650354
ITEM: TIMESTEP
290000
ITEM: NUMBER OF ATOMS
17
ITEM: BOX BOUNDS pp pp pp
-3.0000000000000000e+01 3.0000000000000000e+01
-3.0000000000000000e+01 3.0000000000000000e+01
-3.0000000000000000e+01 3.0000000000000000e+01
ITEM: ATOMS id type xs ys zs
9 5 0.510749 0.507081 0.418646
17 1 0.362841 0.318041 0.567146
11 3 0.417225 0.544172 0.4698
12 3 0.391261 0.501629 0.48985
13 3 0.402432 0.474552 0.540903
14 3 0.409173 0.413321 0.527277
10 4 0.467312 0.523108 0.432454
8 4 0.536461 0.49853 0.46037
7 3 0.540236 0.481322 0.52229
5 3 0.552783 0.566802 0.547424
6 3 0.569385 0.51224 0.551584
4 3 0.585223 0.592192 0.512178
3 3 0.62815 0.588353 0.475137
2 2 0.667103 0.636801 0.47586
1 1 0.665162 0.667159 0.484205
16 2 0.389789 0.309795 0.552279
15 3 0.424122 0.35387 0.544168
ITEM: TIMESTEP
300000
ITEM: NUMBER OF ATOMS
17
ITEM: BOX BOUNDS pp pp pp
-3.0000000000000000e+01 3.0000000000000000e+01
-3.0000000000000000e+01 3.0000000000000000e+01
-3.0000000000000000e+01 3.0000000000000000e+01
ITEM: ATOMS id type xs ys zs
14 3 0.45596 0.455421 0.470657
2 2 0.568037 0.546088 0.37428
1 1 0.569822 0.515675 0.382384
3 3 0.557409 0.586768 0.415191
12 3 0.522342 0.397246 0.510083
13 3 0.482626 0.401174 0.480225
11 3 0.474392 0.394364 0.535757
15 3 0.417314 0.465523 0.432033
16 2 0.362853 0.469038 0.454071
17 1 0.346935 0.489558 0.472603
4 3 0.573702 0.597688 0.47227
6 3 0.587427 0.582118 0.545626
5 3 0.591729 0.549268 0.505141
10 4 0.479314 0.455334 0.558345
8 4 0.499618 0.535236 0.57978
9 5 0.471885 0.494072 0.586652
7 3 0.531357 0.584139 0.549842
ITEM: TIMESTEP
310000
ITEM: NUMBER OF ATOMS
17
ITEM: BOX BOUNDS pp pp pp
-3.0000000000000000e+01 3.0000000000000000e+01
-3.0000000000000000e+01 3.0000000000000000e+01
-3.0000000000000000e+01 3.0000000000000000e+01
ITEM: ATOMS id type xs ys zs
1 1 0.615464 0.624634 0.378898
2 2 0.595334 0.608944 0.397372
12 3 0.446604 0.415994 0.504395
13 3 0.412888 0.385015 0.4646
11 3 0.445661 0.43232 0.554912
15 3 0.466683 0.45487 0.441556
14 3 0.402446 0.439678 0.444826
17 1 0.484581 0.500613 0.51854
16 2 0.484118 0.492691 0.48785
8 4 0.538505 0.5113 0.590923
4 3 0.519773 0.545039 0.407866
7 3 0.517332 0.560113 0.560005
3 3 0.567255 0.555215 0.383146
5 3 0.494856 0.553064 0.462073
6 3 0.509238 0.582985 0.504134
10 4 0.491506 0.453063 0.595191
9 5 0.537112 0.467389 0.611275
ITEM: TIMESTEP
320000
ITEM: NUMBER OF ATOMS
17
ITEM: BOX BOUNDS pp pp pp
-3.0000000000000000e+01 3.0000000000000000e+01
-3.0000000000000000e+01 3.0000000000000000e+01
-3.0000000000000000e+01 3.0000000000000000e+01
ITEM: ATOMS id type xs ys zs
15 3 0.359903 0.359356 0.45204
2 2 0.528783 0.618754 0.444841
1 1 0.500817 0.632752 0.448391
17 1 0.369339 0.278877 0.496362
16 2 0.362702 0.296857 0.47119
14 3 0.383768 0.380986 0.400619
13 3 0.421964 0.405791 0.445388
11 3 0.513223 0.45391 0.474488
12 3 0.458613 0.437294 0.445822
10 4 0.503267 0.50648 0.505398
9 5 0.50029 0.538967 0.541417
3 3 0.58343 0.624218 0.458187
4 3 0.599967 0.622906 0.518089
5 3 0.578654 0.616397 0.568082
8 4 0.544084 0.545194 0.562249
7 3 0.59305 0.540192 0.605191
6 3 0.624397 0.581215 0.571069
ITEM: TIMESTEP
330000
ITEM: NUMBER OF ATOMS
17
ITEM: BOX BOUNDS pp pp pp
-3.0000000000000000e+01 3.0000000000000000e+01
-3.0000000000000000e+01 3.0000000000000000e+01
-3.0000000000000000e+01 3.0000000000000000e+01
ITEM: ATOMS id type xs ys zs
9 5 0.530442 0.515401 0.407945
10 4 0.493461 0.487748 0.424717
17 1 0.383616 0.248699 0.523263
16 2 0.379501 0.279145 0.516555
14 3 0.400301 0.363079 0.528868
15 3 0.386048 0.320974 0.557264
13 3 0.440795 0.400877 0.513022
12 3 0.430618 0.451722 0.491861
11 3 0.431231 0.480852 0.436804
8 4 0.548602 0.54656 0.440971
6 3 0.514716 0.601201 0.510065
5 3 0.542031 0.652697 0.512001
7 3 0.559547 0.571454 0.496158
4 3 0.598198 0.675059 0.522305
3 3 0.600362 0.653094 0.578574
2 2 0.616602 0.596097 0.568824
1 1 0.631341 0.571862 0.582739
ITEM: TIMESTEP
340000
ITEM: NUMBER OF ATOMS
17
ITEM: BOX BOUNDS pp pp pp
-3.0000000000000000e+01 3.0000000000000000e+01
-3.0000000000000000e+01 3.0000000000000000e+01
-3.0000000000000000e+01 3.0000000000000000e+01
ITEM: ATOMS id type xs ys zs
15 3 0.415335 0.332483 0.535382
14 3 0.413279 0.396123 0.525679
16 2 0.466928 0.32801 0.561303
17 1 0.467021 0.328979 0.593011
9 5 0.450416 0.586014 0.469108
13 3 0.417201 0.417385 0.473923
12 3 0.475371 0.44339 0.470055
10 4 0.469205 0.541707 0.458769
11 3 0.484209 0.48474 0.432163
1 1 0.558093 0.438279 0.538052
3 3 0.581772 0.510469 0.549264
4 3 0.60555 0.566438 0.536662
2 2 0.556939 0.463561 0.519114
8 4 0.489972 0.61477 0.461315
7 3 0.542481 0.643896 0.477447
6 3 0.594829 0.621411 0.47662
5 3 0.559381 0.592631 0.506969
ITEM: TIMESTEP
350000
ITEM: NUMBER OF ATOMS
17
ITEM: BOX BOUNDS pp pp pp
-3.0000000000000000e+01 3.0000000000000000e+01
-3.0000000000000000e+01 3.0000000000000000e+01
-3.0000000000000000e+01 3.0000000000000000e+01
ITEM: ATOMS id type xs ys zs
17 1 0.468492 0.335941 0.407229
9 5 0.485719 0.538453 0.41959
14 3 0.405254 0.369702 0.500864
15 3 0.402974 0.341761 0.458284
16 2 0.450417 0.321829 0.429668
13 3 0.427547 0.423312 0.523173
12 3 0.398466 0.472003 0.530884
11 3 0.421533 0.524773 0.50522
10 4 0.446293 0.536281 0.448161
8 4 0.522202 0.558282 0.448587
6 3 0.605686 0.528022 0.52118
7 3 0.57286 0.555326 0.489046
4 3 0.60241 0.595705 0.530015
5 3 0.632688 0.570605 0.493118
1 1 0.541261 0.573679 0.645283
2 2 0.562501 0.561482 0.625449
3 3 0.59057 0.601 0.593459
ITEM: TIMESTEP
360000
ITEM: NUMBER OF ATOMS
17
ITEM: BOX BOUNDS pp pp pp
-3.0000000000000000e+01 3.0000000000000000e+01
-3.0000000000000000e+01 3.0000000000000000e+01
-3.0000000000000000e+01 3.0000000000000000e+01
ITEM: ATOMS id type xs ys zs
14 3 0.38482 0.380102 0.403103
15 3 0.375447 0.36033 0.449487
13 3 0.410982 0.437556 0.40764
17 1 0.407789 0.307958 0.391146
16 2 0.403331 0.31823 0.420902
12 3 0.401514 0.474725 0.452955
11 3 0.44993 0.504116 0.447892
10 4 0.488629 0.505984 0.499056
8 4 0.525425 0.540569 0.563199
9 5 0.506506 0.498687 0.544739
4 3 0.651792 0.592619 0.548029
5 3 0.611576 0.552781 0.569792
7 3 0.52695 0.600109 0.582775
1 1 0.554873 0.58247 0.502332
3 3 0.635013 0.596954 0.494592
2 2 0.576991 0.605065 0.504977
6 3 0.574925 0.575595 0.610468
ITEM: TIMESTEP
370000
ITEM: NUMBER OF ATOMS
17
ITEM: BOX BOUNDS pp pp pp
-3.0000000000000000e+01 3.0000000000000000e+01
-3.0000000000000000e+01 3.0000000000000000e+01
-3.0000000000000000e+01 3.0000000000000000e+01
ITEM: ATOMS id type xs ys zs
13 3 0.511797 0.440229 0.450023
12 3 0.553683 0.418282 0.470136
11 3 0.576879 0.424723 0.520668
16 2 0.382845 0.505928 0.461437
17 1 0.380512 0.536868 0.467406
14 3 0.453593 0.441551 0.453067
15 3 0.422402 0.479057 0.43045
10 4 0.534828 0.449648 0.562341
4 3 0.55267 0.57682 0.483937
7 3 0.456803 0.564717 0.52753
8 4 0.483367 0.50797 0.549763
3 3 0.533826 0.520945 0.472651
1 1 0.585039 0.483081 0.429813
2 2 0.578038 0.496035 0.458094