#LAMMPS Description

17  atoms
16  bonds
15  angles

5 atom types
16 bond types
15 angle types

-30.0 30.0 xlo xhi
-30.0 30.0 ylo yhi
-30.0 30.0 zlo zhi

Atoms  # angle

1 1 1 -18.804256151 0.4267336236 -5.6537640425
2 1 2 -17.85311522 0.7072082234 -3.4181088269
3 1 3 -16.606269079 -0.34882025 -0.1556026214 
4 1 3 -13.339663966 -1.9619949463 0.28752515
5 1 3 -10.65977188 -0.6130085785 2.4018865476
6 1 3 -7.6634203107 -1.769175862 4.171777251
7 1 3 -4.4258237089 -1.1719757394 2.5498976245
8 1 4 -0.8988937923 2.0023513434 3.2292818217
9 1 5 0.2044925953 3.2120184173 1.2711887559
10 1 4 2.6961692373 1.2741052555 -1.6681157698 
11 1 3 4.3682830653 -0.3094495407 -2.2796446452
12 1 3 7.3007498772 -0.0987103646 -4.479156923
13 1 3 10.778530702 0.0408457225 -3.3165287667
14 1 3 13.783230436 -1.7144384792 -2.1761323148
15 1 3 16.309519206 0.1029637749 -0.2391201852
16 1 2 17.374391133 -0.5474160196 3.191460884
17 1 1 18.335956637 -1.5383773602 3.690001792

Bonds

1 1 1 2
2 2 2 3
3 3 3 4
4 4 4 5
5 5 5 6
6 6 6 7
7 7 7 8
8 8 8 9
9 9 9 10
10 10 10 11
11 11 11 12
12 12 12 13
13 13 13 14
14 14 14 15
15 15 15 16
16 16 16 17

Angles

1 1 1 2 3
2 2 2 3 4
3 3 3 4 5
4 4 4 5 6
5 5 5 6 7
6 6 6 7 8
7 7 7 8 9
8 8 8 9 10
9 9 9 10 11
10 10 10 11 12
11 11 11 12 13
12 12 12 13 14
13 13 13 14 15
14 14 14 15 16
15 15 15 16 17






