ITEM: TIMESTEP
0
ITEM: NUMBER OF ATOMS
39
ITEM: BOX BOUNDS pp pp pp
-3.0000000000000000e+01 3.0000000000000000e+01
-3.0000000000000000e+01 3.0000000000000000e+01
-3.0000000000000000e+01 3.0000000000000000e+01
ITEM: ATOMS id type xs ys zs
1 1 0.192277 0.498276 0.425349
26 4 0.621679 0.498355 0.425347
2 2 0.202448 0.511787 0.443032
3 3 0.20713 0.499693 0.461822
4 4 0.217764 0.511545 0.479716
5 4 0.223229 0.494186 0.497407
6 3 0.245858 0.48786 0.493939
7 4 0.252823 0.470726 0.508874
8 4 0.277672 0.4673 0.504792
9 3 0.289014 0.477741 0.52288
10 4 0.312525 0.478552 0.519431
11 4 0.322337 0.489783 0.540031
12 3 0.339941 0.47565 0.547495
13 4 0.351562 0.484815 0.566079
14 4 0.372276 0.470514 0.56953
15 3 0.389708 0.48079 0.557081
16 4 0.409807 0.468131 0.55748
17 4 0.426236 0.480467 0.542498
18 3 0.441892 0.490944 0.557167
19 5 0.471915 0.521245 0.539053
20 6 0.503408 0.553534 0.521186
21 5 0.531255 0.531849 0.487884
22 3 0.557491 0.511891 0.455309
23 4 0.572805 0.494843 0.462006
24 4 0.586728 0.489548 0.441405
25 3 0.607498 0.500707 0.444276
27 4 0.643655 0.509601 0.431374
28 3 0.658862 0.49219 0.436932
29 4 0.679642 0.500681 0.444725
30 4 0.693184 0.48038 0.451884
31 3 0.715436 0.488192 0.454793
32 4 0.729721 0.471426 0.463731
33 4 0.752242 0.48253 0.467648
34 3 0.753297 0.48779 0.490801
35 4 0.771825 0.501716 0.496015
36 4 0.771247 0.505506 0.521102
37 3 0.787042 0.490142 0.530513
38 2 0.789573 0.490876 0.553191
39 1 0.805599 0.47436 0.5615
ITEM: TIMESTEP
10000
ITEM: NUMBER OF ATOMS
39
ITEM: BOX BOUNDS pp pp pp
-3.0000000000000000e+01 3.0000000000000000e+01
-3.0000000000000000e+01 3.0000000000000000e+01
-3.0000000000000000e+01 3.0000000000000000e+01
ITEM: ATOMS id type xs ys zs
2 2 0.459853 0.515959 0.396286
3 3 0.477535 0.51606 0.41078
1 1 0.44438 0.53833 0.412307
35 4 0.558965 0.480856 0.423545
34 3 0.543235 0.463124 0.422822
32 4 0.509125 0.462056 0.443902
33 4 0.520153 0.470769 0.42279
14 4 0.409095 0.482831 0.523928
13 4 0.432878 0.489368 0.518513
12 3 0.434774 0.510338 0.508065
4 4 0.484274 0.534856 0.423785
27 4 0.505779 0.44176 0.510091
26 4 0.525862 0.442988 0.495996
17 4 0.439036 0.428168 0.523125
16 4 0.425028 0.445929 0.510999
15 3 0.411891 0.459071 0.526237
5 4 0.492286 0.52595 0.446014
6 3 0.508161 0.54168 0.454087
39 1 0.595983 0.536126 0.444587
28 3 0.488455 0.455669 0.501951
25 3 0.543683 0.455515 0.506277
10 4 0.470445 0.526613 0.512415
11 4 0.455334 0.514207 0.497138
7 4 0.516715 0.533932 0.47499
9 3 0.493649 0.523255 0.506289
36 4 0.546222 0.502387 0.425824
37 3 0.558189 0.522306 0.422608
8 4 0.500946 0.541694 0.492996
19 5 0.46428 0.465593 0.562978
21 5 0.522365 0.507508 0.548574
29 4 0.481598 0.449216 0.480486
30 4 0.477609 0.469644 0.467253
31 3 0.486249 0.468569 0.445575
38 2 0.580423 0.521907 0.421422
18 3 0.4387 0.430865 0.547047
24 4 0.543455 0.478304 0.497647
23 4 0.563564 0.492011 0.50535
22 3 0.555338 0.511667 0.516488
20 6 0.483837 0.50682 0.57713
ITEM: TIMESTEP
20000
ITEM: NUMBER OF ATOMS
39
ITEM: BOX BOUNDS pp pp pp
-3.0000000000000000e+01 3.0000000000000000e+01
-3.0000000000000000e+01 3.0000000000000000e+01
-3.0000000000000000e+01 3.0000000000000000e+01
ITEM: ATOMS id type xs ys zs
13 4 0.415071 0.441128 0.509074
12 3 0.405658 0.445814 0.488069
38 2 0.476703 0.425752 0.457145
39 1 0.461023 0.399338 0.449624
37 3 0.490081 0.428949 0.438598
36 4 0.514719 0.429859 0.441314
11 4 0.422637 0.451849 0.472125
10 4 0.421229 0.476495 0.466196
9 3 0.417703 0.477744 0.442725
27 4 0.539708 0.524493 0.451972
26 4 0.527667 0.543656 0.439376
25 3 0.510343 0.552556 0.452688
28 3 0.544897 0.531155 0.47459
29 4 0.561333 0.517351 0.486988
14 4 0.439869 0.441578 0.507353
31 3 0.582699 0.48453 0.478009
7 4 0.452706 0.499296 0.441034
8 4 0.436651 0.483561 0.429635
32 4 0.563423 0.472576 0.484128
17 4 0.480874 0.451026 0.521413
15 3 0.448209 0.431142 0.527469
3 3 0.48562 0.510225 0.491014
4 4 0.477868 0.495535 0.474232
18 3 0.503001 0.453243 0.527458
16 4 0.472124 0.429314 0.530167
5 4 0.491336 0.49483 0.45261
6 3 0.475736 0.496097 0.434512
19 5 0.520765 0.491583 0.544049
21 5 0.521062 0.56217 0.524146
35 4 0.519643 0.433007 0.465727
33 4 0.55436 0.45557 0.467308
20 6 0.535302 0.534939 0.562328
34 3 0.531095 0.453294 0.472363
2 2 0.47074 0.522449 0.503412
1 1 0.449259 0.502933 0.51285
30 4 0.577745 0.506459 0.470385
24 4 0.503885 0.574828 0.447488
23 4 0.516284 0.589076 0.465107
22 3 0.506503 0.585469 0.487249
ITEM: TIMESTEP
30000
ITEM: NUMBER OF ATOMS
39
ITEM: BOX BOUNDS pp pp pp
-3.0000000000000000e+01 3.0000000000000000e+01
-3.0000000000000000e+01 3.0000000000000000e+01
-3.0000000000000000e+01 3.0000000000000000e+01
ITEM: ATOMS id type xs ys zs
11 4 0.440214 0.460744 0.433109
10 4 0.429816 0.4792 0.446041
26 4 0.52697 0.564736 0.434082
37 3 0.508479 0.39058 0.463476
38 2 0.48957 0.395979 0.454158
36 4 0.519215 0.40367 0.479781
39 1 0.466491 0.377378 0.462933
35 4 0.510795 0.428289 0.482591
34 3 0.526772 0.442885 0.492405
9 3 0.426158 0.498657 0.431425
8 4 0.446829 0.507935 0.423542
16 4 0.442939 0.463556 0.515166
14 4 0.446503 0.435691 0.48703
15 3 0.431237 0.451469 0.497428
7 4 0.453529 0.526134 0.440345
6 3 0.475451 0.521053 0.446545
12 3 0.435802 0.441854 0.446319
13 4 0.452392 0.441299 0.462965
27 4 0.53544 0.543644 0.443181
28 3 0.536115 0.525839 0.427619
32 4 0.53097 0.474789 0.468596
17 4 0.461602 0.451307 0.526564
3 3 0.479808 0.519459 0.50792
4 4 0.485872 0.525417 0.485593
18 3 0.467736 0.465272 0.54418
5 4 0.476437 0.510159 0.468146
19 5 0.509819 0.484647 0.549898
33 4 0.522232 0.466251 0.490419
20 6 0.551846 0.50845 0.550622
2 2 0.473303 0.534496 0.523489
1 1 0.441712 0.53925 0.523623
30 4 0.554199 0.506496 0.4563
31 3 0.548979 0.490812 0.473223
21 5 0.537882 0.549533 0.528603
29 4 0.538834 0.505577 0.437394
25 3 0.515341 0.577522 0.450282
24 4 0.519714 0.571397 0.471965
23 4 0.517228 0.592624 0.486855
22 3 0.512898 0.58355 0.508125
ITEM: TIMESTEP
40000
ITEM: NUMBER OF ATOMS
39
ITEM: BOX BOUNDS pp pp pp
-3.0000000000000000e+01 3.0000000000000000e+01
-3.0000000000000000e+01 3.0000000000000000e+01
-3.0000000000000000e+01 3.0000000000000000e+01
ITEM: ATOMS id type xs ys zs
9 3 0.459734 0.461232 0.428165
11 4 0.442182 0.429639 0.448953
37 3 0.503832 0.407136 0.445156
38 2 0.499887 0.388469 0.458155
39 1 0.468981 0.379857 0.454682
36 4 0.506425 0.429141 0.455017
35 4 0.517188 0.426606 0.477713
12 3 0.439117 0.435738 0.471421
4 4 0.442188 0.517814 0.493809
10 4 0.439891 0.448602 0.432219
14 4 0.449999 0.435386 0.509418
13 4 0.445278 0.421047 0.489027
28 3 0.505136 0.536426 0.436099
27 4 0.482855 0.544267 0.438395
29 4 0.508449 0.519112 0.450509
30 4 0.524233 0.502354 0.44083
16 4 0.473283 0.43547 0.542331
31 3 0.529317 0.485961 0.456672
15 3 0.461786 0.422744 0.52619
8 4 0.459952 0.482231 0.439994
34 3 0.516966 0.447527 0.488378
7 4 0.437714 0.495075 0.434633
6 3 0.433292 0.51066 0.452771
32 4 0.514467 0.486538 0.476408
17 4 0.475076 0.459707 0.534407
18 3 0.482984 0.472878 0.553264
5 4 0.43974 0.499804 0.474592
19 5 0.521273 0.498718 0.551859
33 4 0.503259 0.464504 0.478057
21 5 0.552093 0.557246 0.509345
3 3 0.4602 0.51198 0.508305
2 2 0.461032 0.520571 0.528849
1 1 0.480704 0.543469 0.539321
20 6 0.560312 0.527491 0.548949
26 4 0.480091 0.567955 0.446366
22 3 0.542497 0.590674 0.478467
24 4 0.503876 0.585198 0.471982
23 4 0.522468 0.60168 0.474758
25 3 0.501535 0.578832 0.449358
ITEM: TIMESTEP
50000
ITEM: NUMBER OF ATOMS
39
ITEM: BOX BOUNDS pp pp pp
-3.0000000000000000e+01 3.0000000000000000e+01
-3.0000000000000000e+01 3.0000000000000000e+01
-3.0000000000000000e+01 3.0000000000000000e+01
ITEM: ATOMS id type xs ys zs
27 4 0.50515 0.525749 0.417661
29 4 0.52156 0.508208 0.452239
26 4 0.497562 0.545593 0.43255
37 3 0.511511 0.394974 0.487161
38 2 0.492422 0.393798 0.474903
39 1 0.494498 0.405133 0.444607
36 4 0.532723 0.393253 0.475118
34 3 0.538232 0.432591 0.489887
35 4 0.548945 0.412127 0.482867
9 3 0.453896 0.515733 0.467228
8 4 0.438436 0.53316 0.46965
7 4 0.433957 0.536095 0.493218
10 4 0.455255 0.506125 0.446
6 3 0.434368 0.514997 0.504653
14 4 0.455939 0.442808 0.491804
5 4 0.439265 0.518383 0.526564
15 3 0.467927 0.458379 0.504135
13 4 0.455506 0.448832 0.466636
12 3 0.44718 0.471706 0.465565
4 4 0.463523 0.523588 0.528464
16 4 0.460333 0.459991 0.526329
11 4 0.459297 0.481644 0.447169
28 3 0.510397 0.505857 0.431135
30 4 0.517763 0.487187 0.466743
31 3 0.517843 0.467076 0.453477
32 4 0.536585 0.451689 0.456215
17 4 0.473177 0.441841 0.539054
18 3 0.496799 0.444492 0.538085
19 5 0.522487 0.481247 0.526639
33 4 0.547122 0.452345 0.479886
21 5 0.520588 0.55459 0.49582
3 3 0.470914 0.516398 0.549037
20 6 0.549267 0.518226 0.510991
1 1 0.470807 0.538833 0.579067
25 3 0.494316 0.56602 0.420879
24 4 0.491569 0.583968 0.435565
22 3 0.494097 0.585374 0.473968
23 4 0.480061 0.576756 0.456731
2 2 0.489411 0.524031 0.558877
ITEM: TIMESTEP
60000
ITEM: NUMBER OF ATOMS
39
ITEM: BOX BOUNDS pp pp pp
-3.0000000000000000e+01 3.0000000000000000e+01
-3.0000000000000000e+01 3.0000000000000000e+01
-3.0000000000000000e+01 3.0000000000000000e+01
ITEM: ATOMS id type xs ys zs
8 4 0.445245 0.511562 0.439329
9 3 0.435054 0.495675 0.426492
37 3 0.494895 0.395096 0.476345
38 2 0.475066 0.38514 0.478466
39 1 0.470146 0.377335 0.44698
36 4 0.498289 0.408787 0.457933
6 3 0.426373 0.537342 0.464098
5 4 0.407013 0.52588 0.470834
27 4 0.514563 0.515809 0.471599
26 4 0.49244 0.528105 0.468835
10 4 0.440145 0.472588 0.430466
35 4 0.523435 0.412279 0.453271
7 4 0.432531 0.53249 0.442033
28 3 0.519085 0.506756 0.450608
11 4 0.460517 0.470286 0.444826
34 3 0.531789 0.42022 0.474349
29 4 0.533657 0.488919 0.45462
14 4 0.458915 0.458583 0.505301
15 3 0.474631 0.454879 0.523445
13 4 0.472531 0.459341 0.483082
12 3 0.458304 0.455456 0.464671
4 4 0.408202 0.516243 0.494352
16 4 0.489989 0.436175 0.521209
30 4 0.537791 0.484546 0.480121
31 3 0.535507 0.461541 0.485134
32 4 0.556125 0.450064 0.484295
17 4 0.511027 0.440285 0.535882
18 3 0.509359 0.460057 0.549258
19 5 0.534403 0.497846 0.540167
33 4 0.556068 0.426868 0.474649
21 5 0.538317 0.569824 0.508096
3 3 0.430735 0.510671 0.500702
2 2 0.442882 0.516865 0.519746
1 1 0.465418 0.537431 0.528516
20 6 0.559162 0.539554 0.54023
25 3 0.497693 0.550608 0.463505
24 4 0.485288 0.568276 0.475272
22 3 0.516818 0.593049 0.474909
23 4 0.49321 0.591616 0.470448
ITEM: TIMESTEP
70000
ITEM: NUMBER OF ATOMS
39
ITEM: BOX BOUNDS pp pp pp
-3.0000000000000000e+01 3.0000000000000000e+01
-3.0000000000000000e+01 3.0000000000000000e+01
-3.0000000000000000e+01 3.0000000000000000e+01
ITEM: ATOMS id type xs ys zs
9 3 0.460216 0.496962 0.418628
10 4 0.448278 0.477488 0.408991
32 4 0.495102 0.448124 0.429686
37 3 0.520989 0.43437 0.497453
38 2 0.539945 0.430966 0.508596
39 1 0.556156 0.449361 0.487891
36 4 0.502437 0.419276 0.498833
35 4 0.48772 0.42245 0.47749
34 3 0.499899 0.418365 0.456628
33 4 0.490881 0.423009 0.434712
8 4 0.449876 0.518055 0.413985
11 4 0.427441 0.471066 0.423004
12 3 0.433734 0.456084 0.439648
7 4 0.456564 0.530734 0.434062
6 3 0.437131 0.538558 0.446516
5 4 0.442606 0.544866 0.468939
4 4 0.464613 0.533635 0.475676
27 4 0.517683 0.517401 0.443139
26 4 0.516828 0.542277 0.445849
28 3 0.516142 0.507332 0.464155
29 4 0.513307 0.484778 0.460282
14 4 0.450245 0.467423 0.474723
15 3 0.445588 0.473244 0.498041
13 4 0.429673 0.464141 0.462154
16 4 0.429942 0.459081 0.508561
30 4 0.521093 0.477063 0.437275
31 3 0.517609 0.454484 0.433399
17 4 0.437347 0.455579 0.533896
18 3 0.458934 0.447827 0.535065
19 5 0.496636 0.474696 0.547844
3 3 0.472579 0.54069 0.496509
2 2 0.470175 0.527984 0.5149
1 1 0.479515 0.546981 0.537912
20 6 0.532674 0.503511 0.561116
21 5 0.544812 0.534438 0.52656
25 3 0.525806 0.551312 0.467377
22 3 0.552269 0.573004 0.499578
24 4 0.534931 0.571697 0.464108
23 4 0.536656 0.583178 0.486165
ITEM: TIMESTEP
80000
ITEM: NUMBER OF ATOMS
39
ITEM: BOX BOUNDS pp pp pp
-3.0000000000000000e+01 3.0000000000000000e+01
-3.0000000000000000e+01 3.0000000000000000e+01
-3.0000000000000000e+01 3.0000000000000000e+01
ITEM: ATOMS id type xs ys zs
12 3 0.441652 0.456488 0.425137
29 4 0.539597 0.471724 0.413455
9 3 0.470324 0.509254 0.415723
10 4 0.4603 0.492553 0.428455
8 4 0.473146 0.529021 0.430151
11 4 0.455234 0.472065 0.413347
30 4 0.519143 0.461202 0.423272
17 4 0.448898 0.435425 0.50622
15 3 0.436446 0.466615 0.483071
14 4 0.430624 0.453028 0.464741
13 4 0.449193 0.450645 0.446059
27 4 0.55068 0.509706 0.409895
28 3 0.535073 0.492521 0.4053
1 1 0.44117 0.500202 0.54872
3 3 0.420354 0.520611 0.511819
2 2 0.41944 0.519948 0.534394
4 4 0.440211 0.524862 0.499187
5 4 0.436191 0.533263 0.476696
6 3 0.455023 0.54055 0.464574
26 4 0.547047 0.518641 0.433182
32 4 0.517478 0.457345 0.462866
33 4 0.520292 0.471885 0.482128
31 3 0.512516 0.470683 0.444643
35 4 0.504824 0.502361 0.499513
36 4 0.517458 0.524305 0.502504
34 3 0.510738 0.493362 0.479321
18 3 0.456667 0.432136 0.52858
7 4 0.466462 0.522382 0.453429
37 3 0.501876 0.54156 0.508766
38 2 0.509358 0.562505 0.502273
39 1 0.494384 0.581247 0.482596
16 4 0.452646 0.460041 0.498723
19 5 0.489919 0.457133 0.546769
20 6 0.528237 0.481212 0.566119
21 5 0.557737 0.483678 0.528579
25 3 0.568033 0.515107 0.443125
24 4 0.566877 0.511582 0.465917
23 4 0.577333 0.489715 0.471246
22 3 0.585308 0.491343 0.493378
ITEM: TIMESTEP
90000
ITEM: NUMBER OF ATOMS
39
ITEM: BOX BOUNDS pp pp pp
-3.0000000000000000e+01 3.0000000000000000e+01
-3.0000000000000000e+01 3.0000000000000000e+01
-3.0000000000000000e+01 3.0000000000000000e+01
ITEM: ATOMS id type xs ys zs
39 1 0.531502 0.538727 0.430979
38 2 0.516394 0.521095 0.411223
18 3 0.469563 0.405191 0.461765
17 4 0.454891 0.414424 0.443538
9 3 0.445808 0.51814 0.513369
10 4 0.427651 0.503435 0.513147
13 4 0.409047 0.47222 0.468959
12 3 0.41267 0.470465 0.492952
8 4 0.463449 0.509092 0.524257
11 4 0.432628 0.481399 0.502271
6 3 0.471864 0.544613 0.537368
7 4 0.467968 0.522514 0.544711
16 4 0.455061 0.438417 0.448574
3 3 0.516531 0.571382 0.518138
4 4 0.497759 0.574863 0.532039
5 4 0.492597 0.553827 0.544145
15 3 0.43403 0.448837 0.444508
14 4 0.432407 0.469439 0.457055
32 4 0.498687 0.47724 0.472286
33 4 0.508196 0.499035 0.483796
31 3 0.51762 0.467785 0.461371
35 4 0.483123 0.51745 0.457403
36 4 0.48688 0.533509 0.438707
34 3 0.499279 0.518848 0.475427
37 3 0.494145 0.523461 0.418581
19 5 0.480302 0.425601 0.50233
20 6 0.483633 0.451038 0.543332
21 5 0.517082 0.485216 0.538987
26 4 0.563248 0.511177 0.469295
25 3 0.561561 0.520899 0.491455
30 4 0.53424 0.46095 0.47532
28 3 0.568344 0.471863 0.458459
23 4 0.568794 0.519128 0.531381
24 4 0.570145 0.506465 0.509572
22 3 0.547033 0.520268 0.540729
27 4 0.566418 0.486671 0.476353
29 4 0.55163 0.453722 0.459497
2 2 0.51576 0.573526 0.494302
1 1 0.485343 0.580613 0.488806
ITEM: TIMESTEP
100000
ITEM: NUMBER OF ATOMS
39
ITEM: BOX BOUNDS pp pp pp
-3.0000000000000000e+01 3.0000000000000000e+01
-3.0000000000000000e+01 3.0000000000000000e+01
-3.0000000000000000e+01 3.0000000000000000e+01
ITEM: ATOMS id type xs ys zs
1 1 0.405491 0.507119 0.416183
20 6 0.496501 0.430343 0.551417
15 3 0.429386 0.49224 0.505502
16 4 0.432643 0.500421 0.483154
39 1 0.545063 0.556856 0.480496
18 3 0.437209 0.461064 0.48264
14 4 0.43063 0.507871 0.523144
38 2 0.554164 0.534196 0.500142
37 3 0.549433 0.532422 0.522138
13 4 0.449022 0.504299 0.539534
36 4 0.532842 0.516181 0.530178
12 3 0.465382 0.522 0.537065
11 4 0.457572 0.544162 0.536975
9 3 0.486495 0.550916 0.508829
10 4 0.477847 0.557762 0.529983
19 5 0.465875 0.444493 0.514591
17 4 0.440168 0.480705 0.469799
6 3 0.451885 0.565534 0.470532
32 4 0.505932 0.48173 0.473345
33 4 0.498205 0.494236 0.493977
31 3 0.49614 0.495006 0.456033
35 4 0.532035 0.496209 0.514434
34 3 0.509857 0.488015 0.513791
21 5 0.53776 0.434958 0.528192
30 4 0.512285 0.501814 0.441067
22 3 0.575163 0.439549 0.504055
29 4 0.534809 0.49853 0.449743
4 4 0.454214 0.548577 0.432655
27 4 0.572937 0.50892 0.448339
28 3 0.551295 0.512035 0.438837
2 2 0.427652 0.528786 0.408292
26 4 0.575439 0.488631 0.462607
3 3 0.445701 0.528876 0.422027
24 4 0.595987 0.473607 0.493127
25 3 0.5905 0.492321 0.480228
23 4 0.580406 0.455133 0.485821
8 4 0.48415 0.567973 0.492213
7 4 0.473784 0.559106 0.471518
5 4 0.439229 0.557625 0.451569
ITEM: TIMESTEP
110000
ITEM: NUMBER OF ATOMS
39
ITEM: BOX BOUNDS pp pp pp
-3.0000000000000000e+01 3.0000000000000000e+01
-3.0000000000000000e+01 3.0000000000000000e+01
-3.0000000000000000e+01 3.0000000000000000e+01
ITEM: ATOMS id type xs ys zs
28 3 0.495012 0.466765 0.421888
29 4 0.486827 0.446618 0.430939
1 1 0.450442 0.516683 0.42104
20 6 0.525453 0.432688 0.540617
2 2 0.455947 0.547948 0.421468
5 4 0.51428 0.550267 0.425423
27 4 0.516385 0.466912 0.411723
3 3 0.476739 0.548152 0.409922
26 4 0.536658 0.471549 0.427839
6 3 0.51996 0.554153 0.447878
7 4 0.504614 0.567071 0.460933
17 4 0.427256 0.476743 0.526123
30 4 0.465607 0.450879 0.444633
31 3 0.470295 0.453603 0.468082
4 4 0.493531 0.563023 0.417515
15 3 0.447953 0.507831 0.537407
18 3 0.434803 0.460028 0.541192
16 4 0.425267 0.498294 0.53612
14 4 0.450829 0.531811 0.535079
37 3 0.527014 0.506924 0.523493
13 4 0.446852 0.537934 0.510882
36 4 0.507825 0.500326 0.510272
19 5 0.478089 0.443466 0.546025
32 4 0.460198 0.474249 0.476224
33 4 0.47693 0.486529 0.491398
35 4 0.503588 0.51468 0.490138
34 3 0.485563 0.505198 0.478616
21 5 0.552961 0.451412 0.504478
39 1 0.510376 0.513073 0.564007
12 3 0.441097 0.560883 0.50831
24 4 0.548742 0.492096 0.459789
25 3 0.53351 0.49072 0.440663
38 2 0.527339 0.497895 0.544788
10 4 0.476358 0.574075 0.492681
23 4 0.570819 0.482089 0.454445
22 3 0.58066 0.473138 0.473134
9 3 0.496824 0.569123 0.501423
8 4 0.513972 0.569752 0.484571
11 4 0.457467 0.577614 0.51117
ITEM: TIMESTEP
120000
ITEM: NUMBER OF ATOMS
39
ITEM: BOX BOUNDS pp pp pp
-3.0000000000000000e+01 3.0000000000000000e+01
-3.0000000000000000e+01 3.0000000000000000e+01
-3.0000000000000000e+01 3.0000000000000000e+01
ITEM: ATOMS id type xs ys zs
28 3 0.528095 0.461944 0.421286
2 2 0.474888 0.511407 0.421332
1 1 0.46078 0.495766 0.397788
29 4 0.529885 0.444683 0.436571
27 4 0.546047 0.477456 0.422077
20 6 0.49651 0.418347 0.528949
3 3 0.461005 0.529216 0.423359
21 5 0.533767 0.444806 0.512625
26 4 0.56404 0.470619 0.439174
30 4 0.511756 0.445493 0.453779
17 4 0.427558 0.501038 0.527817
16 4 0.439455 0.498317 0.548857
4 4 0.447114 0.531173 0.442682
5 4 0.461156 0.528956 0.46326
6 3 0.450487 0.538308 0.480748
31 3 0.494161 0.459146 0.445924
18 3 0.435409 0.485611 0.509951
37 3 0.528322 0.543374 0.508898
13 4 0.474009 0.527014 0.573718
36 4 0.519259 0.526576 0.494113
19 5 0.462304 0.449998 0.516721
32 4 0.486201 0.473151 0.463862
33 4 0.50563 0.484276 0.476422
35 4 0.516671 0.506194 0.508301
34 3 0.499635 0.492005 0.498734
38 2 0.539355 0.561578 0.501504
12 3 0.485745 0.542542 0.561101
22 3 0.56759 0.477515 0.506021
39 1 0.532197 0.557288 0.473001
14 4 0.476782 0.503373 0.561931
15 3 0.461829 0.503563 0.543653
11 4 0.476275 0.564481 0.559015
25 3 0.575408 0.490082 0.447672
24 4 0.568178 0.495588 0.469776
23 4 0.580531 0.481076 0.486354
7 4 0.460105 0.557171 0.493081
8 4 0.446648 0.564224 0.513907
9 3 0.457053 0.581981 0.525877
10 4 0.477874 0.574863 0.534807
ITEM: TIMESTEP
130000
ITEM: NUMBER OF ATOMS
39
ITEM: BOX BOUNDS pp pp pp
-3.0000000000000000e+01 3.0000000000000000e+01
-3.0000000000000000e+01 3.0000000000000000e+01
-3.0000000000000000e+01 3.0000000000000000e+01
ITEM: ATOMS id type xs ys zs
1 1 0.431544 0.520909 0.414067
18 3 0.438934 0.429553 0.534112
19 5 0.485843 0.420693 0.532403
20 6 0.532607 0.413 0.52144
17 4 0.43211 0.451441 0.532759
15 3 0.419097 0.479082 0.505084
14 4 0.411086 0.483102 0.482256
13 4 0.406566 0.507761 0.47806
12 3 0.421044 0.517484 0.495647
16 4 0.418546 0.455137 0.511399
11 4 0.431013 0.538468 0.492708
25 3 0.494754 0.494576 0.458513
2 2 0.463094 0.527038 0.416811
27 4 0.491576 0.48135 0.498636
3 3 0.466134 0.548615 0.419637
21 5 0.53926 0.442869 0.484776
28 3 0.4767 0.495284 0.510221
29 4 0.479077 0.499055 0.532994
26 4 0.482885 0.480341 0.474162
30 4 0.497689 0.484361 0.545169
31 3 0.512537 0.49902 0.55755
36 4 0.563774 0.533234 0.504361
32 4 0.511902 0.522141 0.552134
33 4 0.534555 0.526782 0.540721
34 3 0.527997 0.540258 0.522016
10 4 0.438062 0.545569 0.515073
9 3 0.454359 0.562685 0.515978
24 4 0.517475 0.493264 0.462834
4 4 0.481651 0.558631 0.435234
5 4 0.478131 0.550027 0.458915
8 4 0.474208 0.556302 0.504306
22 3 0.544977 0.470253 0.449309
23 4 0.528809 0.485157 0.441709
35 4 0.537864 0.53514 0.500658
6 3 0.491752 0.565243 0.470746
37 3 0.573076 0.535161 0.482604
38 2 0.594692 0.539574 0.477817
39 1 0.592133 0.568368 0.465905
7 4 0.481811 0.575841 0.489654
ITEM: TIMESTEP
140000
ITEM: NUMBER OF ATOMS
39
ITEM: BOX BOUNDS pp pp pp
-3.0000000000000000e+01 3.0000000000000000e+01
-3.0000000000000000e+01 3.0000000000000000e+01
-3.0000000000000000e+01 3.0000000000000000e+01
ITEM: ATOMS id type xs ys zs
2 2 0.529389 0.543034 0.417917
1 1 0.557967 0.548957 0.401545
3 3 0.512493 0.557653 0.41528
4 4 0.493105 0.55208 0.402106
5 4 0.473788 0.545598 0.418554
20 6 0.47826 0.405718 0.503906
22 3 0.517499 0.463111 0.441008
19 5 0.473416 0.432838 0.543885
21 5 0.498798 0.434294 0.471994
24 4 0.544659 0.490067 0.453724
23 4 0.540798 0.468627 0.440319
12 3 0.452339 0.503963 0.508933
13 4 0.442085 0.51823 0.524839
10 4 0.481331 0.498167 0.484451
11 4 0.475618 0.505495 0.507775
25 3 0.542444 0.482746 0.476375
27 4 0.555081 0.472107 0.51333
28 3 0.533804 0.46142 0.515028
29 4 0.520835 0.470862 0.53179
26 4 0.562228 0.475615 0.489118
33 4 0.516463 0.534378 0.533832
8 4 0.474243 0.512862 0.447895
9 3 0.465032 0.504719 0.468416
34 3 0.527695 0.549527 0.518734
6 3 0.462399 0.525639 0.412054
7 4 0.458845 0.509924 0.427755
36 4 0.522655 0.562635 0.483168
35 4 0.531088 0.542718 0.496182
37 3 0.498984 0.56113 0.484272
38 2 0.485481 0.579019 0.482658
30 4 0.53715 0.482213 0.547221
14 4 0.456394 0.523712 0.543861
39 1 0.459807 0.563511 0.492655
18 3 0.470982 0.457058 0.583986
31 3 0.526936 0.501657 0.555154
16 4 0.468711 0.496824 0.57143
15 3 0.450951 0.511053 0.56369
32 4 0.535591 0.521481 0.544304
17 4 0.459788 0.477561 0.587114
ITEM: TIMESTEP
150000
ITEM: NUMBER OF ATOMS
39
ITEM: BOX BOUNDS pp pp pp
-3.0000000000000000e+01 3.0000000000000000e+01
-3.0000000000000000e+01 3.0000000000000000e+01
-3.0000000000000000e+01 3.0000000000000000e+01
ITEM: ATOMS id type xs ys zs
25 3 0.543726 0.463414 0.422187
23 4 0.509961 0.447003 0.407345
24 4 0.534511 0.443817 0.41315
22 3 0.494879 0.431405 0.416814
26 4 0.552502 0.460977 0.444837
4 4 0.492899 0.528899 0.434126
20 6 0.466208 0.430039 0.506019
39 1 0.463861 0.584143 0.45628
21 5 0.482262 0.433649 0.460906
5 4 0.492977 0.506253 0.445293
7 4 0.458712 0.496117 0.464514
8 4 0.471678 0.494176 0.486412
6 3 0.472722 0.49557 0.446349
3 3 0.511199 0.543438 0.438219
19 5 0.497041 0.44921 0.538754
12 3 0.456144 0.5227 0.554923
13 4 0.47573 0.511971 0.560871
10 4 0.465344 0.500635 0.524504
11 4 0.446706 0.511587 0.536855
27 4 0.566042 0.481521 0.451698
28 3 0.556636 0.491742 0.47148
29 4 0.549378 0.476614 0.488292
33 4 0.528486 0.540534 0.527896
9 3 0.456561 0.491055 0.504683
34 3 0.515445 0.553879 0.513641
30 4 0.529538 0.485737 0.501805
14 4 0.482116 0.519065 0.584839
31 3 0.531102 0.509879 0.504194
32 4 0.521643 0.517284 0.524406
35 4 0.491856 0.551008 0.513284
36 4 0.482077 0.561136 0.492038
2 2 0.52428 0.542453 0.456388
1 1 0.543226 0.568702 0.456773
38 2 0.449347 0.560619 0.470229
37 3 0.458612 0.556908 0.48995
15 3 0.502392 0.508322 0.590397
18 3 0.52807 0.462382 0.566753
16 4 0.502236 0.484747 0.584186
17 4 0.525728 0.476101 0.585683
