#LAMMPS Description

39  atoms
38  bonds
37  angles

6 atom types
6 bond types
7 angle types

-30.0 30.0 xlo xhi
-30.0 30.0 ylo yhi
-30.0 30.0 zlo zhi

Atoms  # angle

1 1 1 -18.463364812 -0.1034249514 -4.4790551831
2 1 2 -17.85311522 0.7072082234 -3.4181088269
3 1 3 -17.572172904 -0.0183992929 -2.2906506157
4 1 4 -16.934135764 0.6927181995 -1.2170674706
5 1 4 -16.606269079 -0.34882025 -0.1556026214
6 1 3 -15.248491551 -0.7283760099 -0.3636816703
7 1 4 -14.830621207 -1.7564370833 0.5324662501
8 1 4 -13.339663966 -1.9619949463 0.28752515
9 1 3 -12.659139201 -1.3355365659 1.372823234
10 1 4 -11.248518423 -1.2868592545 1.1658399858
11 1 4 -10.65977188 -0.6130085785 2.4018865476
12 1 3 -9.603518681 -1.4609717903 2.8497158915
13 1 4 -8.9062815056 -0.9110909977 3.9647371816
14 1 4 -7.6634203107 -1.769175862 4.171777251
15 1 3 -6.6175486879 -1.1526214695 3.4248356013
16 1 4 -5.4115830469 -1.9121494623 3.448775189
17 1 4 -4.4258237089 -1.1719757394 2.5498976245
18 1 3 -3.4864727708 -0.5433449737 3.4300405631
19 1 5 -1.6851084502 1.2746844851 2.34315005655
20 1 6 0.2044925953 3.2120184173 1.2711887559
21 1 5 1.87529454375 1.9109404472 -0.7269414971
22 1 3 3.4494472414 0.7134799702 -2.6814365114
23 1 4 4.3682830653 -0.3094495407 -2.2796446452
24 1 4 5.2036865974 -0.6270952471 -3.5156720105
25 1 3 6.4498913808 0.0424290718 -3.3434102277
26 1 4 7.3007498772 -0.0987103646 -4.479156923
27 1 4 8.6193061942 0.5760308977 -4.1175477975
28 1 3 9.5317323177 -0.4686106852 -3.7841041583
29 1 4 10.778530702 0.0408457225 -3.3165287667
30 1 4 11.591054248 -1.1772073675 -2.886968296
31 1 3 12.926182083 -0.7084862711 -2.7124410636
32 1 4 13.783230436 -1.7144384792 -2.1761323148
33 1 4 15.134496531 -1.0481748753 -1.9411495047
34 1 3 15.197822077 -0.7326278674 -0.5519494462
35 1 4 16.309519206 0.1029637749 -0.2391201852
36 1 4 16.274815212 0.3303327535 1.2660988342
37 1 3 17.22251855 -0.5914660073 1.8307777801
38 1 2 17.374391133 -0.5474160196 3.191460884
39 1 1 18.335956637 -1.5383773602 3.690001792

Bonds

1 1 1 2
2 2 2 3
3 3 3 4
4 4 4 5
5 3 5 6
6 3 6 7
7 4 7 8
8 3 8 9
9 3 9 10
10 4 10 11
11 3 11 12
12 3 12 13
13 4 13 14
14 3 14 15
15 3 15 16
16 4 16 17
17 3 17 18
18 5 18 19
19 6 19 20
20 6 20 21
21 5 21 22
22 3 22 23
23 4 23 24
24 3 24 25
25 3 25 26
26 4 26 27
27 3 27 28
28 3 28 29
29 4 29 30
30 3 30 31
31 3 31 32
32 4 32 33
33 3 33 34
34 3 34 35
35 4 35 36
36 3 36 37
37 2 37 38
38 1 38 39

Angles

1 1 1 2 3
2 2 2 3 4
3 3 3 4 5
4 3 4 5 6
5 4 5 6 7
6 3 6 7 8
7 3 7 8 9
8 4 8 9 10
9 3 9 10 11
10 3 10 11 12
11 4 11 12 13
12 3 12 13 14
13 3 13 14 15
14 4 14 15 16
15 3 15 16 17
16 3 16 17 18
17 5 17 18 19
18 6 18 19 20
19 7 19 20 21
20 6 20 21 22
21 5 21 22 23
22 3 22 23 24
23 3 23 24 25
24 4 24 25 26
25 3 25 26 27
26 3 26 27 28
27 4 27 28 29
28 3 28 29 30
29 3 29 30 31
30 4 30 31 32
31 3 31 32 33
32 3 32 33 34
33 4 33 34 35
34 3 34 35 36
35 3 35 36 37
36 2 36 37 38
37 1 37 38 39






